------------------------------------------------------------
          Invoking FHI-aims ...

          When using FHI-aims, please cite the following reference:

            Volker Blum, Ralf Gehrke, Felix Hanke, Paula Havu,
            Ville Havu, Xinguo Ren, Karsten Reuter, and Matthias Scheffler,
            'Ab Initio Molecular Simulations with Numeric Atom-Centered Orbitals',
            Computer Physics Communications 180, 2175-2196 (2009)

          In addition, many other developments in FHI-aims are likely important for
          your particular application. A partial list of references is given at the end of
          this file. Thank you for giving credit to the authors of these developments.

          For any questions about FHI-aims, please visit our slack channel at

            https://fhi-aims.slack.com

          and our main development and support site at

            https://aims-git.rz-berlin.mpg.de .

          The latter site, in particular, has a wiki to collect information, as well
          as an issue tracker to log discussions, suggest improvements, and report issues
          or bugs. https://aims-git.rz-berlin.mpg.de is also the main development site
          of the project and all new and updated code versions can be obtained there.
          Please send an email to aims-coordinators@fhi-berlin.mpg.de and we will add
          you to these sites. They are for you and everyone is welcome there.

------------------------------------------------------------



  Date     :  20221216, Time     :  113235.631
  Time zero on CPU 1             :   0.775660000000000E-01  s.
  Internal wall clock time zero  :           440422355.631  s.

  FHI-aims created a unique identifier for this run for later identification
  aims_uuid : 8D8B9712-CC3C-41B8-A396-F6840B1374C6

  Build configuration of the current instance of FHI-aims
  -------------------------------------------------------
  FHI-aims version      : 220915
  Commit number         : 303943c5b
  CMake host system     : Darwin-22.2.0
  CMake version         : 3.25.1
  Fortran compiler      : /opt/homebrew/bin/mpifort (GNU) version 12.2.0
  Fortran compiler flags: -O3 -ffree-line-length-none -fallow-argument-mismatch
  C compiler            : /opt/homebrew/bin/gcc-12 (GNU) version 12.2.0
  C compiler flags      : -O3
  Using MPI
  Using LibXC
  Using i-PI
  Using RLSY
  Linking against: /Applications/Xcode.app/Contents/Developer/Platforms/MacOSX.platform/Developer/SDKs/MacOSX13.1.sdk/usr/lib/libblas.tbd
                   /opt/homebrew/lib/libscalapack.dylib

  Using        1 parallel tasks.
  Task        0 on host maccie reporting.

  Performing system and environment tests:
  *** Environment variable OMP_NUM_THREADS is not set
  *** For performance reasons you might want to set it to 1
  | Checking for ScaLAPACK...
  | No ScaLAPACK compiled in.

  Obtaining array dimensions for all initial allocations:
  
  -----------------------------------------------------------------------
  Parsing control.in (first pass over file, find array dimensions only).
  The contents of control.in will be repeated verbatim below
  unless switched off by setting 'verbatim_writeout .false.' .
  in the first line of control.in .
  -----------------------------------------------------------------------
  
  #===============================================================================
  # FHI-aims file: ./control.in
  # Created using the Atomic Simulation Environment (ASE)
  # Fri Dec 16 11:32:30 2022
  #===============================================================================
  xc                                 pbe
  spin                               collinear
  default_initial_moment             0
  #===============================================================================
  
  ################################################################################
  #
  #  FHI-aims code project
  #  Volker Blum, Fritz Haber Institute Berlin, 2009
  #
  #  Suggested "tight" defaults for O atom (to be pasted into control.in file)
  #
  ################################################################################
    species        O
  #     global species definitions
      nucleus             8
      mass                15.9994
  #
      l_hartree           6
  #
      cut_pot             4.0  2.0  1.0
      basis_dep_cutoff    1e-4
  #
      radial_base         36 7.0
      radial_multiplier   2
       angular_grids specified
        division   0.1817   50
        division   0.3417  110
        division   0.4949  194
        division   0.6251  302
        division   0.8014  434
  #      division   0.8507  590
  #      division   0.8762  770
  #      division   0.9023  974
  #      division   1.2339 1202
  #      outer_grid 974
        outer_grid  434
  ################################################################################
  #
  #  Definition of "minimal" basis
  #
  ################################################################################
  #     valence basis states
      valence      2  s   2.
      valence      2  p   4.
  #     ion occupancy
      ion_occ      2  s   1.
      ion_occ      2  p   3.
  ################################################################################
  #
  #  Suggested additional basis functions. For production calculations,
  #  uncomment them one after another (the most important basis functions are
  #  listed first).
  #
  #  Constructed for dimers: 1.0 A, 1.208 A, 1.5 A, 2.0 A, 3.0 A
  #
  ################################################################################
  #  "First tier" - improvements: -699.05 meV to -159.38 meV
       hydro 2 p 1.8
       hydro 3 d 7.6
       hydro 3 s 6.4
  #  "Second tier" - improvements: -49.91 meV to -5.39 meV
       hydro 4 f 11.6
       hydro 3 p 6.2
       hydro 3 d 5.6
       hydro 5 g 17.6
       hydro 1 s 0.75
  #  "Third tier" - improvements: -2.83 meV to -0.50 meV
  #     ionic 2 p auto
  #     hydro 4 f 10.8
  #     hydro 4 d 4.7
  #     hydro 2 s 6.8
  #  "Fourth tier" - improvements: -0.40 meV to -0.12 meV
  #     hydro 3 p 5
  #     hydro 3 s 3.3
  #     hydro 5 g 15.6
  #     hydro 4 f 17.6
  #     hydro 4 d 14
  # Further basis functions - -0.08 meV and below
  #     hydro 3 s 2.1
  #     hydro 4 d 11.6
  #     hydro 3 p 16
  #     hydro 2 s 17.2
  ################################################################################
  #
  # For methods that use the localized form of the "resolution of identity" for
  # the two-electron Coulomb operator (RI_method LVL), particularly Hartree-Fock and
  # hybrid density functional calculations, the highest accuracy can be obtained by
  # uncommenting the line beginning with "for_aux"  below, thus adding an extra g radial
  # function to the construction of the product basis set for the expansion.
  # See Ref. New J. Phys. 17, 093020 (2015) for more information, particularly Figs. 1 and 6.
  #
  ################################################################################
  #
  # for_aux hydro 5 g 6.0
  ################################################################################
  #
  #  FHI-aims code project
  #  Volker Blum, Fritz Haber Institute Berlin, 2009
  #
  #  Suggested "tight" defaults for H atom (to be pasted into control.in file)
  #
  ################################################################################
    species        H
  #     global species definitions
      nucleus             1
      mass                1.00794
  #
      l_hartree           6
  #
      cut_pot             4.0  2.0  1.0
      basis_dep_cutoff    1e-4
  #
      radial_base         24 7.0
      radial_multiplier   2
      angular_grids       specified
        division   0.1930   50
        division   0.3175  110
        division   0.4293  194
        division   0.5066  302
        division   0.5626  434
  #      division   0.5922  590
  #      division   0.6227  974
  #      division   0.6868 1202
  #      outer_grid  770
        outer_grid  434
  ################################################################################
  #
  #  Definition of "minimal" basis
  #
  ################################################################################
  #     valence basis states
      valence      1  s   1.
  #     ion occupancy
      ion_occ      1  s   0.5
  ################################################################################
  #
  #  Suggested additional basis functions. For production calculations,
  #  uncomment them one after another (the most important basis functions are
  #  listed first).
  #
  #  Basis constructed for dimers: 0.5 A, 0.7 A, 1.0 A, 1.5 A, 2.5 A
  #
  ################################################################################
  #  "First tier" - improvements: -1014.90 meV to -62.69 meV
       hydro 2 s 2.1
       hydro 2 p 3.5
  #  "Second tier" - improvements: -12.89 meV to -1.83 meV
       hydro 1 s 0.85
       hydro 2 p 3.7
       hydro 2 s 1.2
       hydro 3 d 7
  #  "Third tier" - improvements: -0.25 meV to -0.12 meV
  #     hydro 4 f 11.2
  #     hydro 3 p 4.8
  #     hydro 4 d 9
  #     hydro 3 s 3.2
  ################################################################################
  #
  # For methods that use the localized form of the "resolution of identity" for
  # the two-electron Coulomb operator (RI_method LVL), particularly Hartree-Fock and
  # hybrid density functional calculations, the highest accuracy can be obtained by
  # uncommenting the line beginning with "for_aux"  below, thus adding an extra g radial
  # function to the construction of the product basis set for the expansion.
  # See Ref. New J. Phys. 17, 093020 (2015) for more information, particularly Figs. 1 and 6.
  #
  ################################################################################
  #
  # for_aux hydro 5 g 6.0
  KS_method               serial
  force_occupation_basis  1 1 atomic 2 1 1 0.0 1
  charge                  1.0
  output                  cube spin_density
  
  -----------------------------------------------------------------------
  Completed first pass over input file control.in .
  -----------------------------------------------------------------------
  
  
  -----------------------------------------------------------------------
  Parsing geometry.in (first pass over file, find array dimensions only).
  The contents of geometry.in will be repeated verbatim below
  unless switched off by setting 'verbatim_writeout .false.' .
  in the first line of geometry.in .
  -----------------------------------------------------------------------
  
  #=======================================================
  # FHI-aims file: ./geometry.in
  # Created using the Atomic Simulation Environment (ASE)
  # Fri Dec 16 11:32:30 2022
  # H2O
  #=======================================================
  atom 0.0000000000000000 0.0000000000000000 0.1192620000000000 O
  atom 0.0000000000000000 0.7632390000000000 -0.4770470000000000 H
  atom 0.0000000000000000 -0.7632390000000000 -0.4770470000000000 H
  
  -----------------------------------------------------------------------
  Completed first pass over input file geometry.in .
  -----------------------------------------------------------------------
  

  Basic array size parameters:
  | Number of species                 :        2
  | Number of atoms                   :        3
  | Max. basis fn. angular momentum   :        4
  | Max. atomic/ionic basis occupied n:        2
  | Max. number of basis fn. types    :        2
  | Max. radial fns per species/type  :        8
  | Max. logarithmic grid size        :     1301
  | Max. radial integration grid size :       73
  | Max. angular integration grid size:      434
  | Max. angular grid division number :        8
  | Radial grid for Hartree potential :     1301
  | Number of spin channels           :        2
  | Cube type output requested        :        1

------------------------------------------------------------
          Reading file control.in.
------------------------------------------------------------
  XC: Using PBE gradient-corrected functionals.
  Spin treatment: Spin density functional theory - collinear spins.
  Initial spin moment per atom:   0.0000

  Reading configuration options for species O                   .
  | Found nuclear charge :   8.0000
  | Found atomic mass :    15.999400000000000      amu
  | Found l_max for Hartree potential  :   6
  | Found cutoff potl. onset [A], width [A], scale factor :    4.00000    2.00000    1.00000
  | Threshold for basis-dependent cutoff potential is   0.100000E-03
  | Found data for basic radial integration grid :    36 points, outermost radius =    7.000 A
  | Found multiplier for basic radial grid :   2
  | Found angular grid specification: user-specified.
  | Specified grid contains     6 separate shells.
  | Check grid settings after all constraints further below.
  | Found free-atom valence shell :  2 s   2.000
  | Found free-atom valence shell :  2 p   4.000
  | No ionic wave fns used. Skipping ion_occ.
  | No ionic wave fns used. Skipping ion_occ.
  | Found hydrogenic basis function :  2 p   1.800
  | Found hydrogenic basis function :  3 d   7.600
  | Found hydrogenic basis function :  3 s   6.400
  | Found hydrogenic basis function :  4 f  11.600
  | Found hydrogenic basis function :  3 p   6.200
  | Found hydrogenic basis function :  3 d   5.600
  | Found hydrogenic basis function :  5 g  17.600
  | Found hydrogenic basis function :  1 s   0.750
  Species O                   : Missing cutoff potential type.
  Defaulting to exp(1/x)/(1-x)^2 type cutoff potential.
  Species O : No 'logarithmic' tag. Using default grid for free atom:
  | Default logarithmic grid data [bohr] : 0.1000E-03 0.1000E+03 0.1012E+01
  Species O : On-site basis accuracy parameter (for Gram-Schmidt orthonormalisation) not specified.
  Using default value basis_acc =  0.1000000E-03.
  Species O                   : Using default innermost maximum threshold i_radial=  2 for radial functions.
  Species O                   : Default cutoff onset for free atom density etc. : 0.40000000E+01 AA.
  Species O                   : Basic radial grid will be enhanced according to radial_multiplier =   2, to contain    73 grid points.

  Reading configuration options for species H                   .
  | Found nuclear charge :   1.0000
  | Found atomic mass :    1.0079400000000001      amu
  | Found l_max for Hartree potential  :   6
  | Found cutoff potl. onset [A], width [A], scale factor :    4.00000    2.00000    1.00000
  | Threshold for basis-dependent cutoff potential is   0.100000E-03
  | Found data for basic radial integration grid :    24 points, outermost radius =    7.000 A
  | Found multiplier for basic radial grid :   2
  | Found angular grid specification: user-specified.
  | Specified grid contains     6 separate shells.
  | Check grid settings after all constraints further below.
  | Found free-atom valence shell :  1 s   1.000
  | No ionic wave fns used. Skipping ion_occ.
  | Found hydrogenic basis function :  2 s   2.100
  | Found hydrogenic basis function :  2 p   3.500
  | Found hydrogenic basis function :  1 s   0.850
  | Found hydrogenic basis function :  2 p   3.700
  | Found hydrogenic basis function :  2 s   1.200
  | Found hydrogenic basis function :  3 d   7.000
  Species H                   : Missing cutoff potential type.
  Defaulting to exp(1/x)/(1-x)^2 type cutoff potential.
  Species H : No 'logarithmic' tag. Using default grid for free atom:
  | Default logarithmic grid data [bohr] : 0.1000E-03 0.1000E+03 0.1012E+01
  Species H : On-site basis accuracy parameter (for Gram-Schmidt orthonormalisation) not specified.
  Using default value basis_acc =  0.1000000E-03.
  Species H                   : Using default innermost maximum threshold i_radial=  2 for radial functions.
  Species H                   : Default cutoff onset for free atom density etc. : 0.40000000E+01 AA.
  Species H                   : Basic radial grid will be enhanced according to radial_multiplier =   2, to contain    49 grid points.
  Kohn-Sham eigenvalues and eigenfunctions calculated by LAPACK via ELSI.
  Occupation forced using basis function selection
    selected atom:     1
    selected spin channel:   1
    selected basis function - n l m:     2    1    1
    maximum number KS state for forcing occupation:        1
  Charged system requested: Charge =   0.100000E+01.
  'cube'-style plottable output required: spin density.
  | Cube output options:
 * Cube origin was not provided following cube request. Will be using default value.
 * Cube edges were not provided following cube request. Defaults will be used.
 Standard cube format requested.


  Finished reading input file 'control.in'.

------------------------------------------------------------


------------------------------------------------------------
          Reading geometry description geometry.in.
------------------------------------------------------------
  | The smallest distance between any two atoms is         0.96856502 AA.
  | The first atom of this pair is atom number                      1 .
  | The second atom of this pair is atom number                     2 .
  Input structure read successfully.
  The structure contains        3 atoms,  and a total of          9.000 electrons.

  Input geometry:
  | No unit cell requested.
  | Atomic structure:
  |       Atom                x [A]            y [A]            z [A]
  |    1: Species O             0.00000000        0.00000000        0.11926200
  |    2: Species H             0.00000000        0.76323900       -0.47704700
  |    3: Species H             0.00000000       -0.76323900       -0.47704700

  Initial moments and charges:
  |  Atom   Moment         Charge        Species
  |     1   0.000000E+00   0.000000E+00   O
  |     2   0.000000E+00   0.000000E+00   H
  |     3   0.000000E+00   0.000000E+00   H


  Finished reading input file 'geometry.in'.



  Consistency checks for stacksize environment parameter are next.

  | Maximum stacksize for task 0: 63 [Mb]
   *** Stacksize is not set to unlimited. This might cause problems...
  | Current stacksize for task 0: 63 [Mb]

  Consistency checks for the contents of control.in are next.

  MPI_IN_PLACE appears to work with this MPI implementation.
  | Keeping use_mpi_in_place .true. (see manual).
  Target number of points in a grid batch is not set. Defaulting to  100
  Method for grid partitioning is not set. Defaulting to parallel hash+maxmin partitioning.
  Batch size limit is not set. Defaulting to    200
  By default, will store active basis functions for each batch.
  If in need of memory, prune_basis_once .false. can be used to disable this option.
  communication_type for Hartree potential was not specified.
  Defaulting to calc_hartree .
  Defaulting to Pulay charge density mixer.
  Pulay mixer: Number of relevant iterations not set.
  Defaulting to    8 iterations.
  Pulay mixer: Number of initial linear mixing iterations not set.
  Defaulting to    0 iterations.
  Work space size for distributed Hartree potential not set.
  Defaulting to   0.200000E+03 MB.
  Mixing parameter for charge density mixing has not been set.
  Using default: charge_mix_param =     0.0500.
  The mixing parameter will be adjusted in iteration number     2 of the first full s.c.f. cycle only.
  Mixing parameter for spin density mixing has not been set.
  Using charge_mix_param as default:     0.0500.
  Algorithm-dependent basis array size parameters:
  | n_max_pulay                         :        8
  Maximum number of self-consistency iterations not provided.
  Presetting  1000 iterations.
  Presetting      1001 iterations before the initial mixing cycle
  is restarted anyway using the sc_init_iter criterion / keyword.
  Presetting a factor      1.000 between actual scf density residual
  and density convergence criterion sc_accuracy_rho below which sc_init_iter
  takes no effect.
 * No s.c.f. convergence criteria (sc_accuracy_*) were provided in control.in.
 * The run will proceed with a reasonable default guess, but please check whether.
 * the s.c.f. cycles seem to take too much or too little time.
  Calculation of forces was not defined in control.in. No forces will be calculated.
  Geometry relaxation not requested: no relaxation will be performed.
 * Notice: The s.c.f. convergence criterion sc_accuracy_rho was not provided.
 * We used to stop in this case, and ask the user to provide reasonable
 * scf convergence criteria. However, this led some users to employ criteria
 * that led to extremely long run times, e.g., for simple relaxation.
 * We now preset a default value for sc_accuracy_rho if it is not set.
 * You may still wish to check if this setting is too tight or too loose for your needs.
 * Based on n_atoms and forces and force-correction status, FHI-aims chose sc_accuracy_rho =  0.333333E-06 .
  No accuracy limit for integral partition fn. given. Defaulting to  0.1000E-14.
  No threshold value for u(r) in integrations given. Defaulting to  0.1000E-05.
  No occupation type (smearing scheme) given. Defaulting to Gaussian broadening, width =  0.1000E-01 eV.
  The width will be adjusted in iteration number     2 of the first full s.c.f. cycle only.
  S.C.F. convergence parameters will be adjusted in iteration number     2 of the first full s.c.f. cycle only.
  No accuracy for occupation numbers given. Defaulting to  0.1000E-07.
  No threshold value for occupation numbers given. Defaulting to  0.0000E+00.
  No accuracy for fermi level given. Defaulting to  0.1000E-19.
  Maximum # of iterations to find E_F not set. Defaulting to  200.
  Will not use alltoall communication since running on < 1024 CPUs.
  Threshold for basis singularities not set.
  Default threshold for basis singularities:  0.1000E-04
  partition_type (choice of integration weights) for integrals was not specified.
  | Using a version of the partition function of Stratmann and coworkers ('stratmann_sparse').
  | At each grid point, the set of atoms used to build the partition table is smoothly restricted to
  | only those atoms whose free-atom density would be non-zero at that grid point.
  Partitioning for Hartree potential was not defined. Using partition_type for integrals.
  | Adjusted default value of keyword multip_moments_threshold to:       0.10000000E-11
  | This value may affect high angular momentum components of the Hartree potential in periodic systems.
  No q(lm)/r^(l+1) cutoff set for long-range Hartree potential.
  | Using default value of  0.100000E-09 .
  | Verify using the multipole_threshold keyword.
  Defaulting to new monopole extrapolation.
  Density update method: automatic selection selected.
  Charge integration errors on the 3D integration grid will be compensated
  by explicit normalization and distribution of residual charges.
  Use the "compensate_multipole_errors" flag to change this behaviour.
  * Volumetric cube output requested. Tightening default wave_threshold to 1d-8
  Set 'collect_eigenvectors' to be '.true.' for all serial calculations. This is mandatory.
  Set 'collect_eigenvectors' to be '.true.' for use_density_matrix .false.
  Set 'collect_eigenvectors' to be '.true.' for KS_method lapack_fast and serial.

  Consistency checks for the contents of geometry.in are next.

 * Warning! You did not set the 'relativistic' flag in input file 'control.in'.
 * Since you are not attempting to treat any elements beyond Ca(Z=20), FHI-aims
 * will default to 'relativistic none'.
 * You must ensure that this is really what you want!!
 * For example, DO NOT compute total-energy differences between results from
 * different settings of the 'relativistic' flag.
 * Warning: Initial charge and total charge of the system are inconsistent.
 * Selected charge in control.in:     1.0000* Sum of initial charges in geometry.in:     0.0000
  Number of empty states per atom not set in control.in - providing a guess from actual geometry.
  | Total number of empty states used during s.c.f. cycle:        6
  If you use a very high smearing, use empty_states (per atom!) in control.in to increase this value.

  Structure-dependent array size parameters: 
  | Number of distinct atom types in initial rho :        2
  | Maximum number of distinct radial functions  :       18
  | Maximum number of basis functions            :       69
  | Number of Kohn-Sham states (occupied + empty):       11
------------------------------------------------------------

------------------------------------------------------------
          Preparing all fixed parts of the calculation.
------------------------------------------------------------
  Determining machine precision:
     2.2250738585072014E-308
  Setting up grids for atomic and cluster calculations.

  Creating wave function, potential, and density for free atoms.
  Runtime choices for atomic solver:
  | atomic solver xc        : PBE
  | compute density gradient: 1
  | compute kinetic density : F

  Species: O

  List of occupied orbitals and eigenvalues:
    n    l              occ      energy [Ha]    energy [eV]
    1    0           2.0000       -18.898576      -514.2564
    2    0           2.0000        -0.878795       -23.9132
    2    1           4.0000        -0.332075        -9.0362


  Species: H

  List of occupied orbitals and eigenvalues:
    n    l              occ      energy [Ha]    energy [eV]
    1    0           1.0000        -0.238382        -6.4867

  Spin-polarized or charged system:
  Charge density initialized according to selected moments and charges.

  Creating spin-polarized density from free atoms.

  Species: O
  Charge:   0.000000
  Moment:   0.000000

  List of occupied orbitals and eigenvalues:
    n    l      energy [Ha]    energy [eV]    occupation
  Spin-up
    1    0       -18.898576      -514.2564     1.00000000
    2    0        -0.878795       -23.9132     1.00000000
    2    1        -0.332075        -9.0362     2.00000000
  Spin-down
    1    0       -18.898576      -514.2564     1.00000000
    2    0        -0.878795       -23.9132     1.00000000
    2    1        -0.332075        -9.0362     2.00000000


  Species: H
  Charge:   0.000000
  Moment:   0.000000

  List of occupied orbitals and eigenvalues:
    n    l      energy [Ha]    energy [eV]    occupation
  Spin-up
    1    0        -0.238382        -6.4867     0.50000000
  Spin-down
    1    0        -0.238382        -6.4867     0.50000000


  Adding cutoff potential to free-atom effective potential.
  Creating fixed part of basis set: Ionic, confined, hydrogenic.

  O                    hydrogenic:

  List of hydrogenic basis orbitals: 
    n    l      effective z      eigenvalue [eV]  inner max. [A]     outer max. [A]     outer radius [A]   
    2    1         1.800000       -11.0118           1.178562           1.178562           5.567066
    3    2         7.600000       -87.3182           0.624125           0.624125           3.764702
    3    0         6.400000       -61.9209           0.061167           1.081902           4.522403
    4    3        11.600000      -114.4238           0.731631           0.731631           3.811008
    3    1         6.200000       -58.1113           0.255680           1.030270           4.522403
    3    2         5.600000       -47.4081           0.847233           0.847233           4.578029
    5    4        17.600000      -168.5799           0.749740           0.749740           3.629133
    1    0         0.750000        -7.6499           0.705284           0.705284           5.567066


  H                    hydrogenic:

  List of hydrogenic basis orbitals: 
    n    l      effective z      eigenvalue [eV]  inner max. [A]     outer max. [A]     outer radius [A]   
    2    0         2.100000       -14.9965           0.193243           1.317208           5.573719
    2    1         3.500000       -41.6672           0.602369           0.602369           4.259334
    1    0         0.850000        -9.8292           0.624871           0.624871           5.573719
    2    1         3.700000       -46.5653           0.573622           0.573622           4.105953
    2    0         1.200000        -4.5995           0.334980           2.228188           5.642276
    3    2         7.000000       -74.0753           0.680699           0.680699           3.958095

  Creating atomic-like basis functions for current effective potential.

  Species O                   :

  List of atomic basis orbitals and eigenvalues:
    n    l      energy [Ha]    energy [eV]    outer radius [A]
    1    0       -18.898576      -514.2564       1.807907
    2    0        -0.878795       -23.9132       5.366593
    2    1        -0.332075        -9.0362       5.499423


  Species H                   :

  List of atomic basis orbitals and eigenvalues:
    n    l      energy [Ha]    energy [eV]    outer radius [A]
    1    0        -0.238382        -6.4867       5.573719

  Assembling full basis from fixed parts.
  | Species O :   atomic orbital   1 s accepted.
  | Species O :    hydro orbital   3 s accepted.
  | Species O :   atomic orbital   2 s accepted.
  | Species O :    hydro orbital   1 s accepted.
  | Species O :    hydro orbital   3 p accepted.
  | Species O :   atomic orbital   2 p accepted.
  | Species O :    hydro orbital   2 p accepted.
  | Species O :    hydro orbital   3 d accepted.
  | Species O :    hydro orbital   3 d accepted.
  | Species O :    hydro orbital   4 f accepted.
  | Species O :    hydro orbital   5 g accepted.
  | Species H :   atomic orbital   1 s accepted.
  | Species H :    hydro orbital   2 s accepted.
  | Species H :    hydro orbital   1 s accepted.
  | Species H :    hydro orbital   2 s accepted.
  | Species H :    hydro orbital   2 p accepted.
  | Species H :    hydro orbital   2 p accepted.
  | Species H :    hydro orbital   3 d accepted.

  Basis size parameters after reduction:
  | Total number of radial functions:       18
  | Total number of basis functions :       69

  Per-task memory consumption for arrays in subroutine allocate_ext:
  |           4.499020MB.
  Testing on-site integration grid accuracy.
  |  Species  Function  <phi|h_atom|phi> (log., in eV)  <phi|h_atom|phi> (rad., in eV)
           1        1               -514.2564144315               -514.2564099626
           1        2                 15.1726678541                 15.1726530877
           1        3                -21.5447785304                -21.5447874973
           1        4                 14.4944558459                 14.4944698284
           1        5                 20.8882174564                 20.8882178906
           1        6                 -2.4850315909                 -2.4850322289
           1        7                 13.8600193195                 13.8599826966
           1        8                 45.8243383616                 45.8243383675
           1        9                 52.1840606465                 52.1840622440
           1       10                 85.4074185510                 85.4074185819
           1       11                142.0983717302                142.0983717339
           2       12                 -6.4869821809                 -6.4870742227
           2       13                 13.5044133542                 13.5041049177
           2       14                 32.7854418792                 32.7779770519
           2       15                 33.7995553101                 33.7152624901 ***
           2       16                 28.8558651799                 28.8558652046
           2       17                 59.6361831893                 59.6362535845
           2       18                 60.2733718049                 60.2733715484
 * Note: Onsite integrals marked "***" above are less accurate than
 * onsite_accuracy_threshold =    0.03000 eV. Usually, this is harmless.
 * When in doubt, tighten the "radial" and/or "radial_multiplier" flags to check.

  Preparing densities etc. for the partition functions (integrals / Hartree potential).

  Preparations completed.
  max(cpu_time)          :      0.089 s.
  Wall clock time (cpu1) :      0.089 s.
------------------------------------------------------------

  Initializing index lists of integration centers etc. from given atomic structure:
  | Number of centers in hartree potential         :         3
  | Number of centers in hartree multipole         :         3
  | Number of centers in electron density summation:         3
  | Number of centers in basis integrals           :         3
  | Number of centers in integrals                 :         3
  | Number of centers in hamiltonian               :         3

------------------------------------------------------------
          Begin self-consistency loop: Initialization.

          Date     :  20221216, Time     :  113235.722
------------------------------------------------------------
  Partitioning the integration grid into batches with parallel hashing+maxmin method.
  | Number of batches:      496
  | Maximal batch size:     193
  | Minimal batch size:      93
  | Average batch size:      98.867
  | Standard deviation of batch sizes:      16.864

  Integration load balanced across     1 MPI tasks.
  Work distribution over tasks is as follows:
  Task     0 has      49038 integration points.
  Initializing partition tables, free-atom densities, potentials, etc. across the integration grid (initialize_grid_storage).
  | initialize_grid_storage: Actual outermost partition radius vs. multipole_radius_free
  | (-- VB: in principle, multipole_radius_free should be larger, hence this output)
  | Species        1: Confinement radius =              6.000000000000000 AA, multipole_radius_free =              6.064445521808699 AA.
  | Species        1: outer_partition_radius set to              6.064445521808699 AA .
  | Species        2: Confinement radius =              6.000000000000000 AA, multipole_radius_free =              6.071692442739658 AA.
  | Species        2: outer_partition_radius set to              6.071692442739658 AA .
  | The sparse table of interatomic distances needs          0.09 kbyte instead of         0.07 kbyte of memory.
  | Using the partition_type stratmann_smoother will reduce your memory usage.
  | Net number of integration points:    49038
  | of which are non-zero points    :    43938
  Renormalizing the initial density to the exact electron count on the 3D integration grid.
  | Initial density: Formal number of electrons (from input files) :      10.0000000000
  | Integrated number of electrons on 3D grid     :      10.0000005368
  | Charge integration error                      :       0.0000005368
  | Normalization factor for density and gradient :       0.9999999463
  Renormalizing the free-atom superposition density to the exact electron count on the 3D integration grid.
  | Formal number of electrons (from input files) :       9.0000000000
  | Integrated number of electrons on 3D grid     :      10.0000005368
  | Charge integration error                      :       0.0000005368
  | Normalization factor for density and gradient :       0.9999999463
  Obtaining max. number of non-zero basis functions in each batch (get_n_compute_maxes).
  | Maximal number of non-zero basis functions:       69 in task     0
  Selecting the method for density update.
  Loop over occupied states selected for charge density update.
  Initialize hartree_potential_storage
  Max. number of atoms included in rho_multipole:            3

  Evaluating partitioned Hartree potential by multipole expansion.
  | Original multipole sum: apparent total charge =  -0.654072E-14
  | Sum of charges compensated after spline to logarithmic grids =  -0.000000E+00
  | Analytical far-field extrapolation by fixed multipoles:
  | Hartree multipole sum: apparent total charge =  -0.000000E+00
  Summing up the Hartree potential.
  Time summed over all CPUs for potential: real work        0.008 s, elapsed        0.008 s
  | RMS charge density error from multipole expansion :   0.131090E-14

  Allocating        0.012 MB for KS_eigenvector
  Integrating Hamiltonian matrix: batch-based integration.
  Time summed over all CPUs for integration: real work        0.080 s, elapsed        0.080 s
  Integrating overlap matrix.
  Time summed over all CPUs for integration: real work        0.026 s, elapsed        0.026 s

  Updating Kohn-Sham eigenvalues and eigenvectors using ELSI and the (modified) LAPACK eigensolver.
  Overlap matrix is not singular
  | Lowest and highest eigenvalues :  0.2537E-03,  0.2965E+01
  Finished singularity check of overlap matrix
  | Time :     0.005 s
  Starting LAPACK eigensolver
  Finished Cholesky decomposition
  | Time :     0.001 s
  Finished transformation to standard eigenproblem
  | Time :     0.000 s
  Finished solving standard eigenproblem
  | Time :     0.009 s
  Finished back-transformation of eigenvectors
  | Time :     0.000 s
  Determining occupation numbers for Kohn-Sham eigenstates.
  | Chemical potential (Fermi level) in eV                 : -.56156018E+01
  | Error in electron count due to remaining E_F inaccuracy: 0.00000000E+00
  | Note that, for insulating systems, the printed 'chemical potential' value is not uniquely defined.
  | It can be anywhere in the energy gap, as long as it correctly separates occupied and unoccupied states.
  | In systems with a gap, the physically relevant chemical potential is the VBM or HOMO.
  | Maximum occupation number of highest empty state:  0.00E+00

  Writing Kohn-Sham eigenvalues.

  Spin-up eigenvalues:

  State    Occupation    Eigenvalue [Ha]    Eigenvalue [eV]
      1       0.00000         -19.005634         -517.16960
      2       1.00000          -1.097526          -29.86521
      3       1.00000          -0.628271          -17.09612
      4       1.00000          -0.510797          -13.89951
      5       1.00000          -0.437833          -11.91403
      6       0.00000          -0.065525           -1.78303
      7       0.00000          -0.001348           -0.03668
      8       0.00000           0.101919            2.77334
      9       0.00000           0.106166            2.88893
     10       0.00000           0.120454            3.27772
     11       0.00000           0.130974            3.56400

  Spin-down eigenvalues:

  State    Occupation    Eigenvalue [Ha]    Eigenvalue [eV]
      1       1.00000         -19.005634         -517.16960
      2       1.00000          -1.097526          -29.86521
      3       1.00000          -0.628271          -17.09612
      4       1.00000          -0.510797          -13.89951
      5       1.00000          -0.437833          -11.91403
      6       0.00000          -0.065525           -1.78303
      7       0.00000          -0.001348           -0.03668
      8       0.00000           0.101919            2.77334
      9       0.00000           0.106166            2.88893
     10       0.00000           0.120454            3.27772
     11       0.00000           0.130974            3.56400

  Current spin moment of the entire structure :
  | N = N_up - N_down :    1.00
  | S                 :    0.50
  | J                 :    2.00

  Highest occupied state (VBM) at    -11.91403063 eV
  | Occupation number:      1.00000000
  | Spin channel:        1

  Lowest unoccupied state (CBM) at  -517.16960153 eV
  | Occupation number:      0.00000000
  | Spin channel:        1

  Overall HOMO-LUMO gap:   -505.25557090 eV.
  Calculating total energy contributions from superposition of free atom densities.

  Total energy components:
  | Sum of eigenvalues            :         -24.35448792 Ha        -662.71933502 eV
  | XC energy correction          :          -9.01277199 Ha        -245.25000401 eV
  | XC potential correction       :          11.58847271 Ha         315.33838656 eV
  | Free-atom electrostatic energy:         -35.67838045 Ha        -970.85812869 eV
  | Hartree energy correction     :          -0.00000000 Ha          -0.00000000 eV
  | Entropy correction            :          -0.00000000 Ha          -0.00000000 eV
  | ---------------------------
  | Total energy                  :         -57.45716765 Ha       -1563.48908115 eV
  | Total energy, T -> 0          :         -57.45716765 Ha       -1563.48908115 eV  <-- do not rely on this value for anything but (periodic) metals
  | Electronic free energy        :         -57.45716765 Ha       -1563.48908115 eV

  Derived energy quantities:
  | Kinetic energy                :          94.52756759 Ha        2572.22598741 eV
  | Electrostatic energy          :        -142.97196324 Ha       -3890.46506455 eV
  | Energy correction for multipole
  | error in Hartree potential    :          -0.00000000 Ha          -0.00000000 eV
  | Sum of eigenvalues per atom                           :        -220.90644501 eV
  | Total energy (T->0) per atom                          :        -521.16302705 eV  <-- do not rely on this value for anything but (periodic) metals
  | Electronic free energy per atom                       :        -521.16302705 eV

  End scf initialization - timings             :  max(cpu_time)    wall_clock(cpu1)
  | Time for scf. initialization                :        0.312 s           0.245 s
  | Boundary condition initialization           :        0.000 s           0.000 s
  | Integration                                 :        0.107 s           0.106 s
  | Solution of K.-S. eqns.                     :        0.050 s           0.022 s
  | Grid partitioning                           :        0.112 s           0.072 s
  | Preloading free-atom quantities on grid     :        0.031 s           0.031 s
  | Free-atom superposition energy              :        0.014 s           0.014 s
  | Total energy evaluation                     :        0.000 s           0.000 s

  Partial memory accounting:
  | Current value for overall tracked memory usage:
  |   Minimum:        0.068 MB (on task 0)
  |   Maximum:        0.068 MB (on task 0)
  |   Average:        0.068 MB
  | Peak value for overall tracked memory usage:
  |   Minimum:        1.684 MB (on task 0 after allocating grid_partition)
  |   Maximum:        1.684 MB (on task 0 after allocating grid_partition)
  |   Average:        1.684 MB
  | Largest tracked array allocation so far:
  |   Minimum:        1.122 MB (all_coords on task 0)
  |   Maximum:        1.122 MB (all_coords on task 0)
  |   Average:        1.122 MB
  Note:  These values currently only include a subset of arrays which are explicitly tracked.
  The "true" memory usage will be greater.
------------------------------------------------------------
  Evaluating new KS density.
  Integration grid: deviation in total charge (<rho> - N_e) =   2.131628E-14
  | <rho_up-rho_dn> = N_up-N_dn =     -1.0000; <|rho_up-rho_dn|> =      1.0000

  Time for density update prior                :  max(cpu_time)    wall_clock(cpu1)
  | self-consistency iterative process          :        0.067 s           0.067 s

------------------------------------------------------------
          Begin self-consistency iteration #    1

  Date     :  20221216, Time     :  113236.034
------------------------------------------------------------
  Pulay mixing of updated and previous charge densities.
  Renormalizing the density to the exact electron count on the 3D integration grid.
  | Formal number of electrons (from input files) :       9.0000000000
  | Integrated number of electrons on 3D grid     :       9.9499999993
  | Charge integration error                      :       0.9499999993
  | Normalization factor for density and gradient :       0.9045226131
  * The proposed renormalization factor deviates too far from 1.
  * Since the initial charge in geometry.in was not equal to the formal charge,
  * it is not yet safe to renormalize the charge. If this message persists
  * even in the final s.c.f. cycle, your integration accuracy may not be good enough.

  Evaluating partitioned Hartree potential by multipole expansion.
  | Original multipole sum: apparent total charge =   0.500000E-01
  | Sum of charges compensated after spline to logarithmic grids =   0.945931E-06
  | Analytical far-field extrapolation by fixed multipoles:
  | Hartree multipole sum: apparent total charge =   0.500000E-01
  Summing up the Hartree potential.
  Time summed over all CPUs for potential: real work        0.018 s, elapsed        0.018 s
  | RMS charge density error from multipole expansion :   0.141066E-03

  Integrating Hamiltonian matrix: batch-based integration.
  Time summed over all CPUs for integration: real work        0.083 s, elapsed        0.083 s

  Updating Kohn-Sham eigenvalues and eigenvectors using ELSI and the (modified) LAPACK eigensolver.
  Starting LAPACK eigensolver
  Finished Cholesky decomposition
  | Time :     0.001 s
  Finished transformation to standard eigenproblem
  | Time :     0.000 s
  Finished solving standard eigenproblem
  | Time :     0.009 s
  Finished back-transformation of eigenvectors
  | Time :     0.000 s
  Determining occupation numbers for Kohn-Sham eigenstates.
  | Chemical potential (Fermi level) in eV                 : -.61145735E+01
  | Error in electron count due to remaining E_F inaccuracy: 0.00000000E+00
  | Note that, for insulating systems, the printed 'chemical potential' value is not uniquely defined.
  | It can be anywhere in the energy gap, as long as it correctly separates occupied and unoccupied states.
  | In systems with a gap, the physically relevant chemical potential is the VBM or HOMO.
  | Maximum occupation number of highest empty state:  0.00E+00

  Writing Kohn-Sham eigenvalues.

  Spin-up eigenvalues:

  State    Occupation    Eigenvalue [Ha]    Eigenvalue [eV]
      1       0.00000         -19.161331         -521.40635
      2       1.00000          -1.131179          -30.78095
      3       1.00000          -0.659195          -17.93760
      4       1.00000          -0.543079          -14.77794
      5       1.00000          -0.471525          -12.83085
      6       0.00000          -0.081246           -2.21082
      7       0.00000          -0.016477           -0.44836
      8       0.00000           0.087890            2.39160
      9       0.00000           0.093008            2.53088
     10       0.00000           0.106252            2.89127
     11       0.00000           0.118382            3.22133

  Spin-down eigenvalues:

  State    Occupation    Eigenvalue [Ha]    Eigenvalue [eV]
      1       1.00000         -19.201021         -522.48636
      2       1.00000          -1.132395          -30.81405
      3       1.00000          -0.659989          -17.95921
      4       1.00000          -0.544097          -14.80563
      5       1.00000          -0.472616          -12.86055
      6       0.00000          -0.081492           -2.21752
      7       0.00000          -0.016706           -0.45461
      8       0.00000           0.087646            2.38498
      9       0.00000           0.092922            2.52854
     10       0.00000           0.106028            2.88516
     11       0.00000           0.118254            3.21785

  Current spin moment of the entire structure :
  | N = N_up - N_down :    1.00
  | S                 :    0.50
  | J                 :    2.00

  Highest occupied state (VBM) at    -12.83084697 eV
  | Occupation number:      1.00000000
  | Spin channel:        1

  Lowest unoccupied state (CBM) at  -521.40634558 eV
  | Occupation number:      0.00000000
  | Spin channel:        1

  Overall HOMO-LUMO gap:   -508.57549860 eV.

  Total energy components:
  | Sum of eigenvalues            :         -24.81509621 Ha        -675.25312440 eV
  | XC energy correction          :          -8.88599497 Ha        -241.80022576 eV
  | XC potential correction       :          11.42547260 Ha         310.90292808 eV
  | Free-atom electrostatic energy:         -35.67838045 Ha        -970.85812869 eV
  | Hartree energy correction     :           0.62653288 Ha          17.04882708 eV
  | Entropy correction            :          -0.00000000 Ha          -0.00000000 eV
  | ---------------------------
  | Total energy                  :         -57.32746615 Ha       -1559.95972369 eV
  | Total energy, T -> 0          :         -57.32746615 Ha       -1559.95972369 eV  <-- do not rely on this value for anything but (periodic) metals
  | Electronic free energy        :         -57.32746615 Ha       -1559.95972369 eV

  Derived energy quantities:
  | Kinetic energy                :          92.39242810 Ha        2514.12588603 eV
  | Electrostatic energy          :        -140.83389928 Ha       -3832.28538396 eV
  | Energy correction for multipole
  | error in Hartree potential    :          -0.00017902 Ha          -0.00487144 eV
  | Sum of eigenvalues per atom                           :        -225.08437480 eV
  | Total energy (T->0) per atom                          :        -519.98657456 eV  <-- do not rely on this value for anything but (periodic) metals
  | Electronic free energy per atom                       :        -519.98657456 eV
  Evaluating new KS density.
  Integration grid: deviation in total charge (<rho> - N_e) =  -2.842171E-14
  | <rho_up-rho_dn> = N_up-N_dn =     -1.0000; <|rho_up-rho_dn|> =      1.0070

  Self-consistency convergence accuracy:
  | Change of charge/spin density :  0.4191E+01  0.4197E+01
  | Change of unmixed KS charge/spin density :  0.5060E+01  0.4197E+01
  | Change of sum of eigenvalues  : -0.1253E+02 eV
  | Change of total energy        :  0.3529E+01 eV


------------------------------------------------------------
  End self-consistency iteration #     1       :  max(cpu_time)    wall_clock(cpu1)
  | Time for this iteration                     :        0.205 s           0.188 s
  | Charge density update                       :        0.065 s           0.065 s
  | Density mixing                              :        0.002 s           0.002 s
  | Hartree multipole update                    :        0.003 s           0.003 s
  | Hartree multipole summation                 :        0.018 s           0.018 s
  | Integration                                 :        0.083 s           0.084 s
  | Solution of K.-S. eqns.                     :        0.032 s           0.015 s
  | Total energy evaluation                     :        0.000 s           0.000 s

  Partial memory accounting:
  | Current value for overall tracked memory usage:
  |   Minimum:        0.068 MB (on task 0)
  |   Maximum:        0.068 MB (on task 0)
  |   Average:        0.068 MB
  | Peak value for overall tracked memory usage:
  |   Minimum:        1.684 MB (on task 0 after allocating grid_partition)
  |   Maximum:        1.684 MB (on task 0 after allocating grid_partition)
  |   Average:        1.684 MB
  | Largest tracked array allocation so far:
  |   Minimum:        1.122 MB (all_coords on task 0)
  |   Maximum:        1.122 MB (all_coords on task 0)
  |   Average:        1.122 MB
  Note:  These values currently only include a subset of arrays which are explicitly tracked.
  The "true" memory usage will be greater.
------------------------------------------------------------

------------------------------------------------------------
          Begin self-consistency iteration #    2

  Date     :  20221216, Time     :  113236.222
------------------------------------------------------------
  Pulay mixing of updated and previous charge densities.
  Renormalizing the density to the exact electron count on the 3D integration grid.
  | Formal number of electrons (from input files) :       9.0000000000
  | Integrated number of electrons on 3D grid     :       9.0433780667
  | Charge integration error                      :       0.0433780667
  | Normalization factor for density and gradient :       0.9952033337
  * The proposed renormalization factor deviates too far from 1.
  * Since the initial charge in geometry.in was not equal to the formal charge,
  * it is not yet safe to renormalize the charge. If this message persists
  * even in the final s.c.f. cycle, your integration accuracy may not be good enough.

  Evaluating partitioned Hartree potential by multipole expansion.
  | Original multipole sum: apparent total charge =   0.956622E+00
  | Sum of charges compensated after spline to logarithmic grids =   0.176798E-04
  | Analytical far-field extrapolation by fixed multipoles:
  | Hartree multipole sum: apparent total charge =   0.956622E+00
  Summing up the Hartree potential.
  Time summed over all CPUs for potential: real work        0.018 s, elapsed        0.018 s
  | RMS charge density error from multipole expansion :   0.280173E-02

  Integrating Hamiltonian matrix: batch-based integration.
  Time summed over all CPUs for integration: real work        0.083 s, elapsed        0.083 s

  Updating Kohn-Sham eigenvalues and eigenvectors using ELSI and the (modified) LAPACK eigensolver.
  Starting LAPACK eigensolver
  Finished Cholesky decomposition
  | Time :     0.001 s
  Finished transformation to standard eigenproblem
  | Time :     0.000 s
  Finished solving standard eigenproblem
  | Time :     0.008 s
  Finished back-transformation of eigenvectors
  | Time :     0.000 s
  Determining occupation numbers for Kohn-Sham eigenstates.
  | Chemical potential (Fermi level) in eV                 : -.24532547E+02
  | Error in electron count due to remaining E_F inaccuracy: 0.00000000E+00
  | Note that, for insulating systems, the printed 'chemical potential' value is not uniquely defined.
  | It can be anywhere in the energy gap, as long as it correctly separates occupied and unoccupied states.
  | In systems with a gap, the physically relevant chemical potential is the VBM or HOMO.
  | Maximum occupation number of highest empty state:  0.00E+00

  Current spin moment of the entire structure :
  | N = N_up - N_down :    1.00
  | S                 :    0.50
  | J                 :    2.00

  Highest occupied state (VBM) at    -29.77753209 eV
  | Occupation number:      1.00000000
  | Spin channel:        1

  Lowest unoccupied state (CBM) at  -579.90649977 eV
  | Occupation number:      0.00000000
  | Spin channel:        1

  Overall HOMO-LUMO gap:   -550.12896768 eV.

  Checking to see if s.c.f. parameters should be adjusted.
  Adjusted the Pulay mixing parameter (charge_mix_param) for an expected low-gap system. New value:   0.020000 .
  Adjusted the occupation broadening width for an expected low-gap system. New value:      0.05000000 eV.

  Total energy components:
  | Sum of eigenvalues            :         -33.19064813 Ha        -903.16348794 eV
  | XC energy correction          :          -7.15487464 Ha        -194.69404492 eV
  | XC potential correction       :           9.23064555 Ha         251.17864537 eV
  | Free-atom electrostatic energy:         -35.67838045 Ha        -970.85812869 eV
  | Hartree energy correction     :          10.00676323 Ha         272.29788192 eV
  | Entropy correction            :          -0.00000000 Ha          -0.00000000 eV
  | ---------------------------
  | Total energy                  :         -56.78649443 Ha       -1545.23913426 eV
  | Total energy, T -> 0          :         -56.78649443 Ha       -1545.23913426 eV  <-- do not rely on this value for anything but (periodic) metals
  | Electronic free energy        :         -56.78649443 Ha       -1545.23913426 eV

  Derived energy quantities:
  | Kinetic energy                :          51.43273635 Ha        1399.55596461 eV
  | Electrostatic energy          :        -101.06435613 Ha       -2750.10105394 eV
  | Energy correction for multipole
  | error in Hartree potential    :          -0.00412774 Ha          -0.11232154 eV
  | Sum of eigenvalues per atom                           :        -301.05449598 eV
  | Total energy (T->0) per atom                          :        -515.07971142 eV  <-- do not rely on this value for anything but (periodic) metals
  | Electronic free energy per atom                       :        -515.07971142 eV
  Evaluating new KS density.
  Integration grid: deviation in total charge (<rho> - N_e) =   1.776357E-15
  | <rho_up-rho_dn> = N_up-N_dn =     -1.0000; <|rho_up-rho_dn|> =      1.1564

  Self-consistency convergence accuracy:
  | Change of charge/spin density :  0.3964E+01  0.3996E+01
  | Change of unmixed KS charge/spin density :  0.4883E-01  0.9512E-02
  | Change of sum of eigenvalues  : -0.2279E+03 eV
  | Change of total energy        :  0.1472E+02 eV


------------------------------------------------------------
  End self-consistency iteration #     2       :  max(cpu_time)    wall_clock(cpu1)
  | Time for this iteration                     :        0.212 s           0.191 s
  | Charge density update                       :        0.066 s           0.066 s
  | Density mixing                              :        0.003 s           0.003 s
  | Hartree multipole update                    :        0.003 s           0.003 s
  | Hartree multipole summation                 :        0.018 s           0.018 s
  | Integration                                 :        0.083 s           0.084 s
  | Solution of K.-S. eqns.                     :        0.038 s           0.017 s
  | Total energy evaluation                     :        0.000 s           0.000 s

  Partial memory accounting:
  | Current value for overall tracked memory usage:
  |   Minimum:        0.069 MB (on task 0)
  |   Maximum:        0.069 MB (on task 0)
  |   Average:        0.069 MB
  | Peak value for overall tracked memory usage:
  |   Minimum:        1.684 MB (on task 0 after allocating grid_partition)
  |   Maximum:        1.684 MB (on task 0 after allocating grid_partition)
  |   Average:        1.684 MB
  | Largest tracked array allocation so far:
  |   Minimum:        1.122 MB (all_coords on task 0)
  |   Maximum:        1.122 MB (all_coords on task 0)
  |   Average:        1.122 MB
  Note:  These values currently only include a subset of arrays which are explicitly tracked.
  The "true" memory usage will be greater.
------------------------------------------------------------

------------------------------------------------------------
          Begin self-consistency iteration #    3

  Date     :  20221216, Time     :  113236.413
------------------------------------------------------------
  Pulay mixing of updated and previous charge densities.
  Renormalizing the density to the exact electron count on the 3D integration grid.
  | Formal number of electrons (from input files) :       9.0000000000
  | Integrated number of electrons on 3D grid     :       9.0184182288
  | Charge integration error                      :       0.0184182288
  | Normalization factor for density and gradient :       0.9979577096
  * The proposed renormalization factor deviates too far from 1.
  * Since the initial charge in geometry.in was not equal to the formal charge,
  * it is not yet safe to renormalize the charge. If this message persists
  * even in the final s.c.f. cycle, your integration accuracy may not be good enough.

  Evaluating partitioned Hartree potential by multipole expansion.
  | Original multipole sum: apparent total charge =   0.981582E+00
  | Sum of charges compensated after spline to logarithmic grids =   0.189233E-04
  | Analytical far-field extrapolation by fixed multipoles:
  | Hartree multipole sum: apparent total charge =   0.981582E+00
  Summing up the Hartree potential.
  Time summed over all CPUs for potential: real work        0.018 s, elapsed        0.018 s
  | RMS charge density error from multipole expansion :   0.360051E-02

  Integrating Hamiltonian matrix: batch-based integration.
  Time summed over all CPUs for integration: real work        0.083 s, elapsed        0.083 s

  Updating Kohn-Sham eigenvalues and eigenvectors using ELSI and the (modified) LAPACK eigensolver.
  Starting LAPACK eigensolver
  Finished Cholesky decomposition
  | Time :     0.001 s
  Finished transformation to standard eigenproblem
  | Time :     0.000 s
  Finished solving standard eigenproblem
  | Time :     0.007 s
  Finished back-transformation of eigenvectors
  | Time :     0.000 s
  Determining occupation numbers for Kohn-Sham eigenstates.
  | Chemical potential (Fermi level) in eV                 : -.24014221E+02
  | Error in electron count due to remaining E_F inaccuracy: 0.00000000E+00
  | Note that, for insulating systems, the printed 'chemical potential' value is not uniquely defined.
  | It can be anywhere in the energy gap, as long as it correctly separates occupied and unoccupied states.
  | In systems with a gap, the physically relevant chemical potential is the VBM or HOMO.
  | Maximum occupation number of highest empty state:  0.00E+00

  Current spin moment of the entire structure :
  | N = N_up - N_down :    1.00
  | S                 :    0.50
  | J                 :    2.00

  Highest occupied state (VBM) at    -25.64145795 eV
  | Occupation number:      1.00000000
  | Spin channel:        1

  Lowest unoccupied state (CBM) at  -569.37582184 eV
  | Occupation number:      0.00000000
  | Spin channel:        1

  Overall HOMO-LUMO gap:   -543.73436389 eV.

  Total energy components:
  | Sum of eigenvalues            :         -31.77971383 Ha        -864.77001235 eV
  | XC energy correction          :          -7.35733296 Ha        -200.20321600 eV
  | XC potential correction       :           9.49718866 Ha         258.43165239 eV
  | Free-atom electrostatic energy:         -35.67838045 Ha        -970.85812869 eV
  | Hartree energy correction     :           8.70516000 Ha         236.87945578 eV
  | Entropy correction            :          -0.00000000 Ha          -0.00000000 eV
  | ---------------------------
  | Total energy                  :         -56.61307858 Ha       -1540.52024886 eV
  | Total energy, T -> 0          :         -56.61307858 Ha       -1540.52024886 eV  <-- do not rely on this value for anything but (periodic) metals
  | Electronic free energy        :         -56.61307858 Ha       -1540.52024886 eV

  Derived energy quantities:
  | Kinetic energy                :          52.61385339 Ha        1431.69579456 eV
  | Electrostatic energy          :        -101.86959901 Ha       -2772.01282742 eV
  | Energy correction for multipole
  | error in Hartree potential    :          -0.00504223 Ha          -0.13720597 eV
  | Sum of eigenvalues per atom                           :        -288.25667078 eV
  | Total energy (T->0) per atom                          :        -513.50674962 eV  <-- do not rely on this value for anything but (periodic) metals
  | Electronic free energy per atom                       :        -513.50674962 eV
  Evaluating new KS density.
  Integration grid: deviation in total charge (<rho> - N_e) =   2.664535E-14
  | <rho_up-rho_dn> = N_up-N_dn =     -1.0000; <|rho_up-rho_dn|> =      1.1769

  Self-consistency convergence accuracy:
  | Change of charge/spin density :  0.7318E+00  0.3282E+00
  | Change of unmixed KS charge/spin density :  0.7782E+00  0.1515E+00
  | Change of sum of eigenvalues  :  0.3839E+02 eV
  | Change of total energy        :  0.4719E+01 eV


------------------------------------------------------------
  End self-consistency iteration #     3       :  max(cpu_time)    wall_clock(cpu1)
  | Time for this iteration                     :        0.205 s           0.188 s
  | Charge density update                       :        0.065 s           0.065 s
  | Density mixing                              :        0.003 s           0.003 s
  | Hartree multipole update                    :        0.002 s           0.003 s
  | Hartree multipole summation                 :        0.018 s           0.018 s
  | Integration                                 :        0.083 s           0.083 s
  | Solution of K.-S. eqns.                     :        0.034 s           0.016 s
  | Total energy evaluation                     :        0.000 s           0.000 s

  Partial memory accounting:
  | Current value for overall tracked memory usage:
  |   Minimum:        0.069 MB (on task 0)
  |   Maximum:        0.069 MB (on task 0)
  |   Average:        0.069 MB
  | Peak value for overall tracked memory usage:
  |   Minimum:        1.684 MB (on task 0 after allocating grid_partition)
  |   Maximum:        1.684 MB (on task 0 after allocating grid_partition)
  |   Average:        1.684 MB
  | Largest tracked array allocation so far:
  |   Minimum:        1.122 MB (all_coords on task 0)
  |   Maximum:        1.122 MB (all_coords on task 0)
  |   Average:        1.122 MB
  Note:  These values currently only include a subset of arrays which are explicitly tracked.
  The "true" memory usage will be greater.
------------------------------------------------------------

------------------------------------------------------------
          Begin self-consistency iteration #    4

  Date     :  20221216, Time     :  113236.601
------------------------------------------------------------
  Pulay mixing of updated and previous charge densities.
  Renormalizing the density to the exact electron count on the 3D integration grid.
  | Formal number of electrons (from input files) :       9.0000000000
  | Integrated number of electrons on 3D grid     :       8.9995211798
  | Charge integration error                      :      -0.0004788202
  | Normalization factor for density and gradient :       1.0000532051

  Evaluating partitioned Hartree potential by multipole expansion.
  | Original multipole sum: apparent total charge =   0.100000E+01
  | Sum of charges compensated after spline to logarithmic grids =   0.201301E-04
  | Analytical far-field extrapolation by fixed multipoles:
  | Hartree multipole sum: apparent total charge =   0.100000E+01
  Summing up the Hartree potential.
  Time summed over all CPUs for potential: real work        0.018 s, elapsed        0.018 s
  | RMS charge density error from multipole expansion :   0.494860E-02

  Integrating Hamiltonian matrix: batch-based integration.
  Time summed over all CPUs for integration: real work        0.081 s, elapsed        0.081 s

  Updating Kohn-Sham eigenvalues and eigenvectors using ELSI and the (modified) LAPACK eigensolver.
  Starting LAPACK eigensolver
  Finished Cholesky decomposition
  | Time :     0.001 s
  Finished transformation to standard eigenproblem
  | Time :     0.001 s
  Finished solving standard eigenproblem
  | Time :     0.009 s
  Finished back-transformation of eigenvectors
  | Time :     0.000 s
  Determining occupation numbers for Kohn-Sham eigenstates.
  | Chemical potential (Fermi level) in eV                 : -.13820701E+02
  | Error in electron count due to remaining E_F inaccuracy: 0.00000000E+00
  | Note that, for insulating systems, the printed 'chemical potential' value is not uniquely defined.
  | It can be anywhere in the energy gap, as long as it correctly separates occupied and unoccupied states.
  | In systems with a gap, the physically relevant chemical potential is the VBM or HOMO.
  | Maximum occupation number of highest empty state:  0.00E+00

  Current spin moment of the entire structure :
  | N = N_up - N_down :    1.00
  | S                 :    0.50
  | J                 :    2.00

  Highest occupied state (VBM) at    -21.14954275 eV
  | Occupation number:      1.00000000
  | Spin channel:        1

  Lowest unoccupied state (CBM) at  -557.32501980 eV
  | Occupation number:      0.00000000
  | Spin channel:        1

  Overall HOMO-LUMO gap:   -536.17547705 eV.

  Total energy components:
  | Sum of eigenvalues            :         -30.21728850 Ha        -822.25425604 eV
  | XC energy correction          :          -7.60523428 Ha        -206.94895429 eV
  | XC potential correction       :           9.82261013 Ha         267.28682115 eV
  | Free-atom electrostatic energy:         -35.67838045 Ha        -970.85812869 eV
  | Hartree energy correction     :           7.12080449 Ha         193.76694885 eV
  | Entropy correction            :          -0.00000000 Ha          -0.00000000 eV
  | ---------------------------
  | Total energy                  :         -56.55748861 Ha       -1539.00756901 eV
  | Total energy, T -> 0          :         -56.55748861 Ha       -1539.00756901 eV  <-- do not rely on this value for anything but (periodic) metals
  | Electronic free energy        :         -56.55748861 Ha       -1539.00756901 eV

  Derived energy quantities:
  | Kinetic energy                :          54.13443991 Ha        1473.07305899 eV
  | Electrostatic energy          :        -103.08669424 Ha       -2805.13167372 eV
  | Energy correction for multipole
  | error in Hartree potential    :          -0.00600231 Ha          -0.16333103 eV
  | Sum of eigenvalues per atom                           :        -274.08475201 eV
  | Total energy (T->0) per atom                          :        -513.00252300 eV  <-- do not rely on this value for anything but (periodic) metals
  | Electronic free energy per atom                       :        -513.00252300 eV
  Evaluating new KS density.
  Integration grid: deviation in total charge (<rho> - N_e) =   6.572520E-14
  | <rho_up-rho_dn> = N_up-N_dn =     -1.0000; <|rho_up-rho_dn|> =      1.1988

  Self-consistency convergence accuracy:
  | Change of charge/spin density :  0.3889E+00  0.1941E+00
  | Change of unmixed KS charge/spin density :  0.1999E+00  0.5246E-02
  | Change of sum of eigenvalues  :  0.4252E+02 eV
  | Change of total energy        :  0.1513E+01 eV


------------------------------------------------------------
  End self-consistency iteration #     4       :  max(cpu_time)    wall_clock(cpu1)
  | Time for this iteration                     :        0.217 s           0.191 s
  | Charge density update                       :        0.065 s           0.065 s
  | Density mixing                              :        0.004 s           0.004 s
  | Hartree multipole update                    :        0.003 s           0.003 s
  | Hartree multipole summation                 :        0.018 s           0.018 s
  | Integration                                 :        0.081 s           0.081 s
  | Solution of K.-S. eqns.                     :        0.046 s           0.020 s
  | Total energy evaluation                     :        0.000 s           0.000 s

  Partial memory accounting:
  | Current value for overall tracked memory usage:
  |   Minimum:        0.069 MB (on task 0)
  |   Maximum:        0.069 MB (on task 0)
  |   Average:        0.069 MB
  | Peak value for overall tracked memory usage:
  |   Minimum:        1.684 MB (on task 0 after allocating grid_partition)
  |   Maximum:        1.684 MB (on task 0 after allocating grid_partition)
  |   Average:        1.684 MB
  | Largest tracked array allocation so far:
  |   Minimum:        1.122 MB (all_coords on task 0)
  |   Maximum:        1.122 MB (all_coords on task 0)
  |   Average:        1.122 MB
  Note:  These values currently only include a subset of arrays which are explicitly tracked.
  The "true" memory usage will be greater.
------------------------------------------------------------

------------------------------------------------------------
          Begin self-consistency iteration #    5

  Date     :  20221216, Time     :  113236.792
------------------------------------------------------------
  Pulay mixing of updated and previous charge densities.
  Renormalizing the density to the exact electron count on the 3D integration grid.
  | Formal number of electrons (from input files) :       9.0000000000
  | Integrated number of electrons on 3D grid     :       8.9987420108
  | Charge integration error                      :      -0.0012579892
  | Normalization factor for density and gradient :       1.0001397961

  Evaluating partitioned Hartree potential by multipole expansion.
  | Original multipole sum: apparent total charge =   0.100000E+01
  | Sum of charges compensated after spline to logarithmic grids =   0.206331E-04
  | Analytical far-field extrapolation by fixed multipoles:
  | Hartree multipole sum: apparent total charge =   0.100000E+01
  Summing up the Hartree potential.
  Time summed over all CPUs for potential: real work        0.018 s, elapsed        0.018 s
  | RMS charge density error from multipole expansion :   0.559784E-02

  Integrating Hamiltonian matrix: batch-based integration.
  Time summed over all CPUs for integration: real work        0.080 s, elapsed        0.080 s

  Updating Kohn-Sham eigenvalues and eigenvectors using ELSI and the (modified) LAPACK eigensolver.
  Starting LAPACK eigensolver
  Finished Cholesky decomposition
  | Time :     0.001 s
  Finished transformation to standard eigenproblem
  | Time :     0.000 s
  Finished solving standard eigenproblem
  | Time :     0.008 s
  Finished back-transformation of eigenvectors
  | Time :     0.000 s
  Determining occupation numbers for Kohn-Sham eigenstates.
  | Chemical potential (Fermi level) in eV                 : -.12101088E+02
  | Error in electron count due to remaining E_F inaccuracy: 0.00000000E+00
  | Note that, for insulating systems, the printed 'chemical potential' value is not uniquely defined.
  | It can be anywhere in the energy gap, as long as it correctly separates occupied and unoccupied states.
  | In systems with a gap, the physically relevant chemical potential is the VBM or HOMO.
  | Maximum occupation number of highest empty state:  0.00E+00

  Current spin moment of the entire structure :
  | N = N_up - N_down :    1.00
  | S                 :    0.50
  | J                 :    2.00

  Highest occupied state (VBM) at    -19.01238716 eV
  | Occupation number:      1.00000000
  | Spin channel:        1

  Lowest unoccupied state (CBM) at  -552.39098102 eV
  | Occupation number:      0.00000000
  | Spin channel:        1

  Overall HOMO-LUMO gap:   -533.37859386 eV.

  Total energy components:
  | Sum of eigenvalues            :         -29.45673118 Ha        -801.55843820 eV
  | XC energy correction          :          -7.72686241 Ha        -210.25862398 eV
  | XC potential correction       :           9.98221155 Ha         271.62979667 eV
  | Free-atom electrostatic energy:         -35.67838045 Ha        -970.85812869 eV
  | Hartree energy correction     :           6.28971123 Ha         171.15175062 eV
  | Entropy correction            :          -0.00000000 Ha          -0.00000000 eV
  | ---------------------------
  | Total energy                  :         -56.59005126 Ha       -1539.89364358 eV
  | Total energy, T -> 0          :         -56.59005126 Ha       -1539.89364358 eV  <-- do not rely on this value for anything but (periodic) metals
  | Electronic free energy        :         -56.59005126 Ha       -1539.89364358 eV

  Derived energy quantities:
  | Kinetic energy                :          54.94674967 Ha        1495.17713218 eV
  | Electrostatic energy          :        -103.80993851 Ha       -2824.81215179 eV
  | Energy correction for multipole
  | error in Hartree potential    :          -0.00652733 Ha          -0.17761764 eV
  | Sum of eigenvalues per atom                           :        -267.18614607 eV
  | Total energy (T->0) per atom                          :        -513.29788119 eV  <-- do not rely on this value for anything but (periodic) metals
  | Electronic free energy per atom                       :        -513.29788119 eV
  Evaluating new KS density.
  Integration grid: deviation in total charge (<rho> - N_e) =  -5.329071E-15
  | <rho_up-rho_dn> = N_up-N_dn =     -1.0000; <|rho_up-rho_dn|> =      1.1999

  Self-consistency convergence accuracy:
  | Change of charge/spin density :  0.9962E-01  0.8208E-01
  | Change of unmixed KS charge/spin density :  0.2588E+00  0.5454E-02
  | Change of sum of eigenvalues  :  0.2070E+02 eV
  | Change of total energy        : -0.8861E+00 eV


------------------------------------------------------------
  End self-consistency iteration #     5       :  max(cpu_time)    wall_clock(cpu1)
  | Time for this iteration                     :        0.207 s           0.188 s
  | Charge density update                       :        0.065 s           0.065 s
  | Density mixing                              :        0.004 s           0.005 s
  | Hartree multipole update                    :        0.003 s           0.003 s
  | Hartree multipole summation                 :        0.018 s           0.018 s
  | Integration                                 :        0.080 s           0.081 s
  | Solution of K.-S. eqns.                     :        0.036 s           0.016 s
  | Total energy evaluation                     :        0.000 s           0.000 s

  Partial memory accounting:
  | Current value for overall tracked memory usage:
  |   Minimum:        0.069 MB (on task 0)
  |   Maximum:        0.069 MB (on task 0)
  |   Average:        0.069 MB
  | Peak value for overall tracked memory usage:
  |   Minimum:        1.684 MB (on task 0 after allocating grid_partition)
  |   Maximum:        1.684 MB (on task 0 after allocating grid_partition)
  |   Average:        1.684 MB
  | Largest tracked array allocation so far:
  |   Minimum:        1.122 MB (all_coords on task 0)
  |   Maximum:        1.122 MB (all_coords on task 0)
  |   Average:        1.122 MB
  Note:  These values currently only include a subset of arrays which are explicitly tracked.
  The "true" memory usage will be greater.
------------------------------------------------------------

------------------------------------------------------------
          Begin self-consistency iteration #    6

  Date     :  20221216, Time     :  113236.981
------------------------------------------------------------
  Pulay mixing of updated and previous charge densities.
  Renormalizing the density to the exact electron count on the 3D integration grid.
  | Formal number of electrons (from input files) :       9.0000000000
  | Integrated number of electrons on 3D grid     :       9.0015005668
  | Charge integration error                      :       0.0015005668
  | Normalization factor for density and gradient :       0.9998332981

  Evaluating partitioned Hartree potential by multipole expansion.
  | Original multipole sum: apparent total charge =   0.100000E+01
  | Sum of charges compensated after spline to logarithmic grids =   0.193060E-04
  | Analytical far-field extrapolation by fixed multipoles:
  | Hartree multipole sum: apparent total charge =   0.100000E+01
  Summing up the Hartree potential.
  Time summed over all CPUs for potential: real work        0.018 s, elapsed        0.018 s
  | RMS charge density error from multipole expansion :   0.488295E-02

  Integrating Hamiltonian matrix: batch-based integration.
  Time summed over all CPUs for integration: real work        0.084 s, elapsed        0.084 s

  Updating Kohn-Sham eigenvalues and eigenvectors using ELSI and the (modified) LAPACK eigensolver.
  Starting LAPACK eigensolver
  Finished Cholesky decomposition
  | Time :     0.001 s
  Finished transformation to standard eigenproblem
  | Time :     0.000 s
  Finished solving standard eigenproblem
  | Time :     0.007 s
  Finished back-transformation of eigenvectors
  | Time :     0.000 s
  Determining occupation numbers for Kohn-Sham eigenstates.
  | Chemical potential (Fermi level) in eV                 : -.17984975E+02
  | Error in electron count due to remaining E_F inaccuracy: 0.00000000E+00
  | Note that, for insulating systems, the printed 'chemical potential' value is not uniquely defined.
  | It can be anywhere in the energy gap, as long as it correctly separates occupied and unoccupied states.
  | In systems with a gap, the physically relevant chemical potential is the VBM or HOMO.
  | Maximum occupation number of highest empty state:  0.00E+00

  Current spin moment of the entire structure :
  | N = N_up - N_down :    1.00
  | S                 :    0.50
  | J                 :    2.00

  Highest occupied state (VBM) at    -22.45079200 eV
[...]
  | Electrostatic energy          :        -103.75850302 Ha       -2823.41252081 eV
  | Energy correction for multipole
  | error in Hartree potential    :          -0.00514349 Ha          -0.13996139 eV
  | Sum of eigenvalues per atom                           :        -276.24250381 eV
  | Total energy (T->0) per atom                          :        -512.97746275 eV  <-- do not rely on this value for anything but (periodic) metals
  | Electronic free energy per atom                       :        -512.97746275 eV
  Evaluating new KS density.
  Integration grid: deviation in total charge (<rho> - N_e) =   1.953993E-14
  | <rho_up-rho_dn> = N_up-N_dn =     -1.0000; <|rho_up-rho_dn|> =      1.2391

  Self-consistency convergence accuracy:
  | Change of charge/spin density :  0.4012E-05  0.3310E-05
  | Change of unmixed KS charge/spin density :  0.5423E-06  0.1502E-05
  | Change of sum of eigenvalues  : -0.4383E-03 eV
  | Change of total energy        :  0.4181E-07 eV


------------------------------------------------------------
  End self-consistency iteration #    17       :  max(cpu_time)    wall_clock(cpu1)
  | Time for this iteration                     :        0.214 s           0.194 s
  | Charge density update                       :        0.065 s           0.065 s
  | Density mixing                              :        0.006 s           0.007 s
  | Hartree multipole update                    :        0.003 s           0.002 s
  | Hartree multipole summation                 :        0.018 s           0.019 s
  | Integration                                 :        0.084 s           0.084 s
  | Solution of K.-S. eqns.                     :        0.037 s           0.017 s
  | Total energy evaluation                     :        0.000 s           0.000 s

  Partial memory accounting:
  | Current value for overall tracked memory usage:
  |   Minimum:        0.071 MB (on task 0)
  |   Maximum:        0.071 MB (on task 0)
  |   Average:        0.071 MB
  | Peak value for overall tracked memory usage:
  |   Minimum:        1.684 MB (on task 0 after allocating grid_partition)
  |   Maximum:        1.684 MB (on task 0 after allocating grid_partition)
  |   Average:        1.684 MB
  | Largest tracked array allocation so far:
  |   Minimum:        1.122 MB (all_coords on task 0)
  |   Maximum:        1.122 MB (all_coords on task 0)
  |   Average:        1.122 MB
  Note:  These values currently only include a subset of arrays which are explicitly tracked.
  The "true" memory usage will be greater.
------------------------------------------------------------

------------------------------------------------------------
          Begin self-consistency iteration #   18

  Date     :  20221216, Time     :  113239.335
------------------------------------------------------------
  Pulay mixing of updated and previous charge densities.
  Renormalizing the density to the exact electron count on the 3D integration grid.
  | Formal number of electrons (from input files) :       9.0000000000
  | Integrated number of electrons on 3D grid     :       8.9999999993
  | Charge integration error                      :      -0.0000000007
  | Normalization factor for density and gradient :       1.0000000001

  Evaluating partitioned Hartree potential by multipole expansion.
  | Original multipole sum: apparent total charge =   0.100000E+01
  | Sum of charges compensated after spline to logarithmic grids =   0.195334E-04
  | Analytical far-field extrapolation by fixed multipoles:
  | Hartree multipole sum: apparent total charge =   0.100000E+01
  Summing up the Hartree potential.
  Time summed over all CPUs for potential: real work        0.018 s, elapsed        0.018 s
  | RMS charge density error from multipole expansion :   0.500097E-02

  Integrating Hamiltonian matrix: batch-based integration.
  Time summed over all CPUs for integration: real work        0.085 s, elapsed        0.085 s

  Updating Kohn-Sham eigenvalues and eigenvectors using ELSI and the (modified) LAPACK eigensolver.
  Starting LAPACK eigensolver
  Finished Cholesky decomposition
  | Time :     0.001 s
  Finished transformation to standard eigenproblem
  | Time :     0.000 s
  Finished solving standard eigenproblem
  | Time :     0.007 s
  Finished back-transformation of eigenvectors
  | Time :     0.000 s
  Determining occupation numbers for Kohn-Sham eigenstates.
  | Chemical potential (Fermi level) in eV                 : -.17865699E+02
  | Error in electron count due to remaining E_F inaccuracy: 0.00000000E+00
  | Note that, for insulating systems, the printed 'chemical potential' value is not uniquely defined.
  | It can be anywhere in the energy gap, as long as it correctly separates occupied and unoccupied states.
  | In systems with a gap, the physically relevant chemical potential is the VBM or HOMO.
  | Maximum occupation number of highest empty state:  0.00E+00

  Current spin moment of the entire structure :
  | N = N_up - N_down :    1.00
  | S                 :    0.50
  | J                 :    2.00

  Highest occupied state (VBM) at    -21.91660657 eV
  | Occupation number:      1.00000000
  | Spin channel:        1

  Lowest unoccupied state (CBM) at  -557.40337055 eV
  | Occupation number:      0.00000000
  | Spin channel:        1

  Overall HOMO-LUMO gap:   -535.48676397 eV.

  Total energy components:
  | Sum of eigenvalues            :         -30.45517622 Ha        -828.72751013 eV
  | XC energy correction          :          -7.59987734 Ha        -206.80318449 eV
  | XC potential correction       :           9.81375823 Ha         267.04594851 eV
  | Free-atom electrostatic energy:         -35.67838045 Ha        -970.85812869 eV
  | Hartree energy correction     :           7.36495001 Ha         200.41048657 eV
  | Entropy correction            :          -0.00000000 Ha          -0.00000000 eV
  | ---------------------------
  | Total energy                  :         -56.55472577 Ha       -1538.93238824 eV
  | Total energy, T -> 0          :         -56.55472577 Ha       -1538.93238824 eV  <-- do not rely on this value for anything but (periodic) metals
  | Electronic free energy        :         -56.55472577 Ha       -1538.93238824 eV

  Derived energy quantities:
  | Kinetic energy                :          54.80365457 Ha        1491.28331660 eV
  | Electrostatic energy          :        -103.75850300 Ha       -2823.41252034 eV
  | Energy correction for multipole
  | error in Hartree potential    :          -0.00514349 Ha          -0.13996139 eV
  | Sum of eigenvalues per atom                           :        -276.24250338 eV
  | Total energy (T->0) per atom                          :        -512.97746275 eV  <-- do not rely on this value for anything but (periodic) metals
  | Electronic free energy per atom                       :        -512.97746275 eV

  Self-consistency convergence accuracy:
  | Change of charge/spin density :  0.2017E-06  0.1953E-06
  | Change of unmixed KS charge/spin density :  0.1932E-05  0.1283E-05
  | Change of sum of eigenvalues  :  0.1300E-05 eV
  | Change of total energy        : -0.7908E-10 eV

  Writing Kohn-Sham eigenvalues.

  Spin-up eigenvalues:

  State    Occupation    Eigenvalue [Ha]    Eigenvalue [eV]
      1       0.00000         -20.484197         -557.40337
      2       1.00000          -1.460266          -39.73585
      3       1.00000          -0.993319          -27.02958
      4       1.00000          -0.866064          -23.56681
      5       1.00000          -0.805420          -21.91661
      6       0.00000          -0.339960           -9.25078
      7       0.00000          -0.275811           -7.50521
      8       0.00000          -0.109151           -2.97014
      9       0.00000          -0.107485           -2.92481
     10       0.00000          -0.085402           -2.32390
     11       0.00000          -0.074978           -2.04025

  Spin-down eigenvalues:

  State    Occupation    Eigenvalue [Ha]    Eigenvalue [eV]
      1       1.00000         -22.056062         -600.17599
      2       1.00000          -1.509498          -41.07553
      3       1.00000          -1.022278          -27.81761
      4       1.00000          -0.901869          -24.54111
      5       1.00000          -0.840399          -22.86841
      6       0.00000          -0.349413           -9.50801
      7       0.00000          -0.284905           -7.75265
      8       0.00000          -0.113135           -3.07856
      9       0.00000          -0.110904           -3.01785
     10       0.00000          -0.083898           -2.28299
     11       0.00000          -0.075956           -2.06688

  Current spin moment of the entire structure :
  | N = N_up - N_down :    1.00
  | S                 :    0.50
  | J                 :    2.00

  Highest occupied state (VBM) at    -21.91660657 eV
  | Occupation number:      1.00000000
  | Spin channel:        1

  Lowest unoccupied state (CBM) at  -557.40337055 eV
  | Occupation number:      0.00000000
  | Spin channel:        1

  Overall HOMO-LUMO gap:   -535.48676397 eV.

  | Chemical Potential                          :   -17.86569897 eV
  | Note that, for insulating systems, the printed 'chemical potential' value is not uniquely defined.
  | It can be anywhere in the energy gap, as long as it correctly separates occupied and unoccupied states.
  | In systems with a gap, the physically relevant chemical potential is the VBM or HOMO.

  Self-consistency cycle converged.


------------------------------------------------------------
  End self-consistency iteration #    18       :  max(cpu_time)    wall_clock(cpu1)
  | Time for this iteration                     :        0.147 s           0.129 s
  | Charge density update                       :        0.000 s           0.000 s
  | Density mixing                              :        0.006 s           0.006 s
  | Hartree multipole update                    :        0.002 s           0.002 s
  | Hartree multipole summation                 :        0.019 s           0.019 s
  | Integration                                 :        0.085 s           0.085 s
  | Solution of K.-S. eqns.                     :        0.035 s           0.017 s
  | Total energy evaluation                     :        0.000 s           0.000 s

  Partial memory accounting:
  | Current value for overall tracked memory usage:
  |   Minimum:        0.071 MB (on task 0)
  |   Maximum:        0.071 MB (on task 0)
  |   Average:        0.071 MB
  | Peak value for overall tracked memory usage:
  |   Minimum:        1.684 MB (on task 0 after allocating grid_partition)
  |   Maximum:        1.684 MB (on task 0 after allocating grid_partition)
  |   Average:        1.684 MB
  | Largest tracked array allocation so far:
  |   Minimum:        1.122 MB (all_coords on task 0)
  |   Maximum:        1.122 MB (all_coords on task 0)
  |   Average:        1.122 MB
  Note:  These values currently only include a subset of arrays which are explicitly tracked.
  The "true" memory usage will be greater.
------------------------------------------------------------

  Energy and forces in a compact form:
  | Total energy uncorrected      :         -0.153893238823667E+04 eV
  | Total energy corrected        :         -0.153893238823667E+04 eV  <-- do not rely on this value for anything but (periodic) metals
  | Electronic free energy        :         -0.153893238823667E+04 eV

  ------------------------------------ 
  Start decomposition of the XC Energy 
  ------------------------------------ 
  X and C from original XC functional choice 
  Hartree-Fock Energy :          0.000000000 Ha              0.000000000 eV
  X Energy            :         -7.295881486 Ha           -198.531036375 eV
  C Energy            :         -0.303995856 Ha             -8.272148119 eV
  XC Energy w/o HF    :         -7.599877342 Ha           -206.803184494 eV
  Total XC Energy     :         -7.599877342 Ha           -206.803184494 eV
  ------------------------------------ 
  LDA X and C from self-consistent density 
  X Energy LDA        :         -6.708398450 Ha           -182.544809606 eV
  C Energy LDA        :         -0.562553943 Ha            -15.307871658 eV
  ------------------------------------ 
  End decomposition of the XC Energy 
  ------------------------------------ 

------------------------------------------------------------

  ------------------------------------------------------------
                      Starting Cube Output
  ------------------------------------------------------------

  The following cube files will be created:

  --------------------------------------
    Cube file:            1
    cube origin       0.0000      0.0000     -0.1789
    cube edge 74      0.1000      0.0000      0.0000
    cube edge 89      0.0000      0.1000      0.0000
    cube edge 80      0.0000      0.0000      0.1000
    cube filename: cube_001_spin_density.cube
  --------------------------------------

  * WARNING: The output  of  the cube file is in 1/Ang^3  or
  * WARNING: 1/Ang^3/2,  but  the cube voxel  definition  is
  * WARNING: in atomic units. Be careful when postprocessing
  * WARNING: Consistent units can be chosen in control.in by
  *               cube_content_unit  bohr

  Evaluating density matrix
  Evaluating density matrix
 
   Starting cube            1
   Cube will be divided in
     8 minicubes along the first,
     9 minicubes along the second, and
     8 minicubes along the third cube edge
   Calculating all minicubes on main processor
   Cube file 1 finished.

  Cube output                                             :  max(cpu_time)    wall_clock(cpu1)
  | Total time for cube output                            :          0.641               0.642
------------------------------------------------------------

------------------------------------------------------------------------------
  Final output of selected total energy values:

  The following output summarizes some interesting total energy values
  at the end of a run (AFTER all relaxation, molecular dynamics, etc.).

  | Total energy of the DFT / Hartree-Fock s.c.f. calculation      :          -1538.932388237 eV
  | Final zero-broadening corrected energy (caution - metals only) :          -1538.932388237 eV
  | For reference only, the value of 1 Hartree used in FHI-aims is :             27.211384500 eV

  Before relying on these values, please be sure to understand exactly which
  total energy value is referred to by a given number. Different objects may
  all carry the same name 'total energy'. Definitions:

  Total energy of the DFT / Hartree-Fock s.c.f. calculation:
  | Note that this energy does not include ANY quantities calculated after the
  | s.c.f. cycle, in particular not ANY RPA, MP2, etc. many-body perturbation terms.

  Final zero-broadening corrected energy:
  | For metallic systems only, a broadening of the occupation numbers at the Fermi
  | level can be extrapolated back to zero broadening by an electron-gas inspired
  | formula. For all systems that are not real metals, this value can be
  | meaningless and should be avoided.

------------------------------------------------------------------------------
  Methods described in the following list of references were used in this FHI-aims run.
  If you publish the results, please make sure to cite these reference if they apply.
  FHI-aims is an academic code, and for our developers (often, Ph.D. students
  and postdocs), scientific credit in the community is essential.
  Thank you for helping us!

  For any use of FHI-aims, please cite:

    Volker Blum, Ralf Gehrke, Felix Hanke, Paula Havu, Ville Havu,
    Xinguo Ren, Karsten Reuter, and Matthias Scheffler
    'Ab initio molecular simulations with numeric atom-centered orbitals'
    Computer Physics Communications 180, 2175-2196 (2009)
    http://doi.org/10.1016/j.cpc.2009.06.022


  The ELSI infrastructure was used in your run to solve the Kohn-Sham electronic structure.
  Please check out http://elsi-interchange.org to learn more.
  If scalability is important for your project, please acknowledge ELSI by citing:

    V. W-z. Yu, F. Corsetti, A. Garcia, W. P. Huhn, M. Jacquelin, W. Jia,
    B. Lange, L. Lin, J. Lu, W. Mi, A. Seifitokaldani, A. Vazquez-Mayagoitia,
    C. Yang, H. Yang, and V. Blum
    'ELSI: A unified software interface for Kohn-Sham electronic structure solvers'
    Computer Physics Communications 222, 267-285 (2018).
    http://doi.org/10.1016/j.cpc.2017.09.007


  For the real-space grid partitioning and parallelization used in this calculation, please cite:

    Ville Havu, Volker Blum, Paula Havu, and Matthias Scheffler,
    'Efficient O(N) integration for all-electron electronic structure calculation'
    'using numerically tabulated basis functions'
    Journal of Computational Physics 228, 8367-8379 (2009).
    http://doi.org/10.1016/j.jcp.2009.08.008

  Of course, there are many other important community references, e.g., those cited in the
  above references. Our list is limited to references that describe implementations in the
  FHI-aims code. The reason is purely practical (length of this list) - please credit others as well.

 * A warning regarding the cube file format (cube_content_unit legacy)
 * was issued above. The output is Angstrom-based but the cube voxel
 * definition is in atomic units. Please check carefully.

------------------------------------------------------------
          Leaving FHI-aims.
          Date     :  20221216, Time     :  113240.126

          Computational steps:
          | Number of self-consistency cycles          :           18
          | Number of SCF (re)initializations          :            1

          Detailed time accounting                     :  max(cpu_time)    wall_clock(cpu1)
          | Total time                                  :        4.884 s           4.495 s
          | Preparation time                            :        0.089 s           0.089 s
          | Boundary condition initalization            :        0.000 s           0.000 s
          | Grid partitioning                           :        0.112 s           0.072 s
          | Preloading free-atom quantities on grid     :        0.031 s           0.031 s
          | Free-atom superposition energy              :        0.014 s           0.014 s
          | Total time for integrations                 :        1.622 s           1.623 s
          | Total time for solution of K.-S. equations  :        0.705 s           0.351 s
          | Total time for density update               :        1.174 s           1.175 s
          | Total time for mixing                       :        0.093 s           0.094 s
          | Total time for Hartree multipole update     :        0.047 s           0.047 s
          | Total time for Hartree multipole sum        :        0.338 s           0.340 s
          | Total time for total energy evaluation      :        0.001 s           0.000 s
          | Total time for cube output                  :        0.641 s           0.642 s

          Partial memory accounting:
          | Residual value for overall tracked memory usage across tasks:     0.000000 MB (should be 0.000000 MB)
          | Peak values for overall tracked memory usage:
          |   Minimum:        1.684 MB (on task 0 after allocating grid_partition)
          |   Maximum:        1.684 MB (on task 0 after allocating grid_partition)
          |   Average:        1.684 MB
          | Largest tracked array allocation:
          |   Minimum:        1.122 MB (all_coords on task 0)
          |   Maximum:        1.122 MB (all_coords on task 0)
          |   Average:        1.122 MB
          Note:  These values currently only include a subset of arrays which are explicitly tracked.
          The "true" memory usage will be greater.

          Have a nice day.
------------------------------------------------------------
